# ODT 1.0
# Table Start
# Title: mmArchive Data Table, Wed Sep 25 18:47:58 PDT 2013
# Columns: {Oxs_EulerEvolve:evolver:Total energy} {Oxs_EulerEvolve:evolver:Energy calc count} {Oxs_EulerEvolve:evolver:Max dm/dt} Oxs_EulerEvolve:evolver:dE/dt {Oxs_EulerEvolve:evolver:Delta E} Oxs_UZeeman::Energy  Oxs_UZeeman::B       Oxs_UZeeman::Bx      Oxs_UZeeman::By      Oxs_UZeeman::Bz      Oxs_TimeDriver::Iteration {Oxs_TimeDriver::Stage iteration} Oxs_TimeDriver::Stage Oxs_TimeDriver::mx   Oxs_TimeDriver::my   Oxs_TimeDriver::mz   {Oxs_TimeDriver::Last time step} {Oxs_TimeDriver::Simulation time}
# Units:                     J                                        {}                                    deg/ns                             J/s                              J                          J                 mT                   mT                   mT                   mT                        {}                            {}                          {}                   {}                   {}                   {}                          s                                 s                
                    -8.6764535009852835e-022                      20001                                   100.1695897434421               -1.3903805005355139e-014            -6.4496333577608317e-027        -8.6764535009852835e-022  10                   0                    0                    10                     20000                         20000                       0                     0.98112956305254184 -0.16006919884114817  0.10845566876231601        9.9999999234493968e-012              1.9999999999999999e-007       
                    -8.6764535009852835e-022                      20001                                   100.1695897434421               -1.3903805005355139e-014            -6.4496333577608317e-027        -8.6764535009852835e-022  10                   0                    0                    10                     20000                         20000                       0                     0.98112956305254184 -0.16006919884114817  0.10845566876231601        9.9999999234493968e-012              1.9999999999999999e-007       
                    -8.6764535009852835e-022                      20001                                   100.1695897434421               -1.3903805005355139e-014            -6.4496333577608317e-027        -8.6764535009852835e-022  10                   0                    0                    10                     20000                         20000                       0                     0.98112956305254184 -0.16006919884114817  0.10845566876231601        9.9999999234493968e-012              1.9999999999999999e-007       
# Table End
